 Gaussian 16, Revision B.01,
 Gaussian 16:  ES64L-G16RevB.01 20-Dec-2017

 -----------------------------------------------------------------
 #P pbepbe/6-31G scf(qc,maxcycle=100) freq opt(tight,maxcycle=100)
 -----------------------------------------------------------------

 ------------------------------
 Gaussian input prepared by ASE
 ------------------------------
 Symbolic Z-matrix:
 Charge =  0 Multiplicity = 1

 SCF Done:  E(RPBE-PBE) =  -154.789279396     a.u. after    7 cycles
 SCF Done:  E(RPBE-PBE) =  -154.790817259     a.u. after    5 cycles
 SCF Done:  E(RPBE-PBE) =  -154.790970677     a.u. after    3 cycles
 SCF Done:  E(RPBE-PBE) =  -154.790987372     a.u. after    3 cycles
 SCF Done:  E(RPBE-PBE) =  -154.790989765     a.u. after    3 cycles
 SCF Done:  E(RPBE-PBE) =  -154.790989793     a.u. after    2 cycles
 Optimization completed.
    -- Stationary point found.
 Normal termination of Gaussian 16 at Tue Aug 20 09:48:33 2024.

 ------------------------------------------------------------------
 #P Geom=AllCheck Guess=TCheck SCRF=Check GenChk RPBEPBE/6-31G Freq
 ------------------------------------------------------------------

 Structure from the checkpoint file:  "/scratch/Gau-8738.chk"
 ------------------------------
 Gaussian input prepared by ASE
 ------------------------------
 Charge =  0 Multiplicity = 1

                         Standard orientation:
 ---------------------------------------------------------------------
 Center     Atomic      Atomic             Coordinates (Angstroms)
 Number     Number       Type             X           Y           Z
 ---------------------------------------------------------------------
      1          6           0        1.188807   -0.377727    0.000000
      2          6           0        0.000000    0.572508    0.000000
      3          8           0       -1.206296   -0.260963    0.000000
      4          1           0       -2.001949    0.325607    0.000000
      5          1           0        0.030128    1.227585    0.896176
      6          1           0        0.030128    1.227585   -0.896176
      7          1           0        2.137672    0.185494    0.000000
      8          1           0        1.160773   -1.023624    0.892782
      9          1           0        1.160773   -1.023624   -0.892782
 ---------------------------------------------------------------------

 SCF Done:  E(RPBE-PBE) =  -154.790989793     a.u. after    1 cycles

 The electronic state is 1-A'.
 Alpha  occ. eigenvalues --  -18.75543  -9.93655  -9.87761  -0.91626  -0.67507
 Alpha  occ. eigenvalues --   -0.54490  -0.45284  -0.40682  -0.34251  -0.33167
 Alpha  occ. eigenvalues --   -0.31012  -0.26799  -0.20392
 Alpha virt. eigenvalues --    0.04208   0.08865   0.12632   0.13157   0.14193
 Alpha virt. eigenvalues --    0.16000   0.16997   0.20041   0.51025   0.53139
 Alpha virt. eigenvalues --    0.54505   0.57515   0.62625   0.65291   0.78170

 Mulliken charges:
               1
     1  C   -0.444834
     2  C   -0.086585
     3  O   -0.576923
     4  H    0.351199
     5  H    0.137152
     6  H    0.137152
     7  H    0.145084
     8  H    0.168877
     9  H    0.168877
 Sum of Mulliken charges =   0.00000

 Dipole moment (field-independent basis, Debye):
    X=              0.0126    Y=              1.8046    Z=              0.0000  Tot=              1.8046
 Quadrupole moment (field-independent basis, Debye-Ang):
   XX=            -17.0496   YY=            -20.0533   ZZ=            -20.0634
   XY=             -2.5990   XZ=              0.0000   YZ=             -0.0000

  Exact polarizability:  30.902  -0.657  26.289  -0.000  -0.000  23.312
 Approx polarizability:  42.693   1.614  39.206   0.000  -0.000  33.684

                      1                      2                      3
                     A"                     A"                     A'
 Frequencies --    236.0827               300.2033               403.2506
 Red. masses --      1.1518                 1.0684                 2.6741
 Frc consts  --      0.0378                 0.0567                 0.2562
 IR Inten    --     35.2851               126.7108                14.8865

                      4                      5                      6
                     A"                     A'                     A'
 Frequencies --    825.9801               869.2489              1012.3834
 Red. masses --      1.0829                 2.7819                 2.7357
 Frc consts  --      0.4353                 1.2384                 1.6520
 IR Inten    --      0.8605                26.9453                61.4043

                      7                      8                      9
                     A'                     A"                     A'
 Frequencies --   1080.0369              1148.0091              1247.7509
 Red. masses --      1.6864                 1.3949                 1.2270
 Frc consts  --      1.1590                 1.0832                 1.1255
 IR Inten    --      5.9558                 3.4837                58.2982

                     10                     11                     12
                     A"                     A'                     A'
 Frequencies --   1272.4436              1403.4070              1422.8398
 Red. masses --      1.1793                 1.2360                 1.4094
 Frc consts  --      1.1250                 1.4343                 1.6812
 IR Inten    --      1.3195                 1.8530                16.1540

                     13                     14                     15
                     A"                     A'                     A'
 Frequencies --   1483.0792              1502.8908              1522.2647
 Red. masses --      1.0416                 1.0419                 1.0850
 Frc consts  --      1.3498                 1.3865                 1.4814
 IR Inten    --      7.3799                 6.9491                 1.1217

                     16                     17                     18
                     A'                     A"                     A'
 Frequencies --   2918.5730              2953.3471              2996.0962
 Red. masses --      1.0537                 1.1059                 1.0347
 Frc consts  --      5.2884                 5.6833                 5.4725
 IR Inten    --     68.9996                75.9762                15.1599

                     19                     20                     21
                     A'                     A"                     A'
 Frequencies --   3083.4172              3091.3570              3513.6141
 Red. masses --      1.0992                 1.1007                 1.0658
 Frc consts  --      6.1572                 6.1974                 7.7521
 IR Inten    --     27.3983                31.7210                 2.3049

 - Thermochemistry -
 -------------------
 Temperature   298.150 Kelvin.  Pressure   1.00000 Atm.
 Atom     1 has atomic number  6 and mass  12.00000

 Molecular mass:    46.04186 amu.
 Principal axes and moments of inertia in atomic units:
                           1         2         3
     Eigenvalues --    53.59880 196.09024 226.65265
           X            0.99719   0.07490   0.00000
           Y           -0.07490   0.99719   0.00000
           Z           -0.00000   0.00000   1.00000
 This molecule is an asymmetric top.
 Rotational symmetry number  1.
 Rotational temperatures (Kelvin)      1.61597     0.44170     0.38214
 Rotational constants (GHZ):          33.67130     9.20363     7.96259
 Zero-point vibrational energy     205077.5 (Joules/Mol)
                                   49.01469 (Kcal/Mol)
 Warning -- explicit consideration of   3 degrees of freedom as
           vibrations may cause significant error
 Vibrational temperatures:    339.67   431.93   580.19  1188.40  1250.66
          (Kelvin)           1456.59  1553.93  1651.73  1795.24  1830.76
                             2019.19  2047.15  2133.82  2162.32  2190.20
                             4199.18  4249.21  4310.71  4436.35  4447.77
                             5055.31

 Zero-point correction=                           0.078110 (Hartree/Particle)
 Thermal correction to Energy=                    0.082445
 Thermal correction to Enthalpy=                  0.083389
 Thermal correction to Gibbs Free Energy=         0.052655
 Sum of electronic and zero-point Energies=           -154.712880
 Sum of electronic and thermal Energies=              -154.708545
 Sum of electronic and thermal Enthalpies=            -154.707601
 Sum of electronic and thermal Free Energies=         -154.738334

                     E (Thermal)             CV                S
                      KCal/Mol        Cal/Mol-Kelvin    Cal/Mol-Kelvin
 Total                   51.735             13.703             64.684
 Electronic               0.000              0.000              0.000
 Translational            0.889              2.981             37.406
 Rotational               0.889              2.981             22.392
 Vibrational             49.957              7.741              4.885
 Vibration     1          0.655              1.786              1.832
 Vibration     2          0.693              1.673              1.416
 Vibration     3          0.769              1.463              0.951

 Optimization completed.
    -- Stationary point found.
 Normal termination of Gaussian 16 at Tue Aug 20 09:48:47 2024.
